# vtk DataFile Version 5.1
vtk output
ASCII
DATASET UNSTRUCTURED_GRID
POINTS 1546 double
527.71973793 68.276401734 -846.6700722 386.45460333 143.74721701 -916.52309145 384.53193903 143.0320503 -911.96327802 
521.577793 207.70512118 -827.53561161 -730.0204327 441.83440471 521.39478964 -727.43697263 298.53597947 617.82822841 
-827.76233708 300.32256071 484.39743273 -823.64411944 298.82840844 481.98749654 -368.93246247 438.94294828 -819.27890629 
-251.30535478 566.47253575 -791.18865317 -215.56479425 433.46435157 -880.71872661 -370.77713477 441.13764753 -823.37530462 
-83.366237965 424.98630327 -901.35271254 -72.406990574 569.41334482 -818.85631856 47.968323726 448.28069843 -898.20290321 
-72.769037658 572.26040356 -822.95060464 -4.1263646845 287.61899937 -957.73602016 -4.1469966317 289.05709616 -962.52469972 
-49.515113903 143.07230733 -993.53085929 -154.9961871 280.17875442 -952.62849399 -939.16103505 -298.64916056 -169.66210286 
-898.5551455 -442.61438759 -81.952146959 -958.90452542 -300.87723597 -5.3557158708e-12 -943.85684164 -300.14240068 -170.51041553 
-228.6443798 890.18761907 394.06566767 -229.25107464 954.48175565 215.48439134 -229.78656925 894.6383414 396.03708247 
-77.6543845 948.61854725 322.67266446 36.384310973 710.36667304 -709.98617715 -121.64896353 672.10474945 -737.22570183 
102.26067162 594.64842362 -803.71699454 -48.278527023 984.60989807 167.96586692 -48.497002048 989.5350541 168.79993333 
36.204265688 -706.83168692 706.45468185 36.385654122 -710.3644403 709.98834225 -121.63761661 -672.10217482 737.22992127 
-121.18991456 -779.44592068 622.73755414 521.58506032 -207.68231243 827.53675565 529.42655228 -358.83118982 775.22429203 
643.35036812 -267.07229778 717.47661397 646.56669736 -268.40770393 721.06435936 865.31845201 -1.3041707423e-05 -501.22248215 
936.34873987 -78.994384397 -356.42099345 860.10010113 -175.47990466 -489.34611381 869.64504376 2.0929044339e-05 -503.72859543 
337.96544257 -512.70183928 789.25039349 196.65622624 -470.22744955 860.35601606 252.79268201 -605.75800203 761.03751741 
339.65526019 -515.26533749 793.1966567 103.3744503 -34.606954383 -994.04028175 103.89132983 -34.779979513 -999.01048273 
-72.848981142 -136.57154523 -993.00868021 -6.1232339957e-14 -7.4987989133e-30 -1000 -628.31344778 441.58371175 640.48890456 
-621.3282121 579.67388674 536.61386292 -733.67053189 444.04356986 524.00177357 -631.45500885 443.79163002 643.69135532 
-352.50284981 886.16146613 300.76501926 -423.10779591 899.83357895 145.96000561 -507.55330891 811.97800199 305.13335264 
-354.28999231 890.57304125 302.29664163 -509.85553228 -443.04430563 744.16670139 -398.6684294 -577.38513068 719.52407483 
-507.31892587 -440.8401171 740.46438038 -368.93248555 -438.94293681 819.27890204 -823.64412165 -298.82841378 -481.98748945 
-894.84446433 -298.54881943 -331.84633052 -894.70664948 -150.58885564 -420.50327934 -899.31869071 -300.04155581 -333.50555818 
-865.17897832 -441.10731893 238.51555223 -809.05805026 -577.62771166 147.63569364 -765.3169905 -576.3677812 286.51367305 
-769.143584 -579.249604 287.94625098 101.81924871 155.75045743 -987.62322553 101.3126838 154.9755764 -982.70967779 
239.98404925 -75.908796533 -967.80447959 241.18397142 -76.288329562 -972.64350237 93.349592713 -165.54189962 -986.86713037 
-417.99879794 -891.14937917 176.43635941 -460.5245094 -890.78662227 66.643602974 -404.94975814 -898.47372888 196.94073193 
-570.37379733 -807.86761239 179.02137348 -83.783077663 427.11122612 -905.8594794 238.73934365 73.912129294 -973.42977299 
250.64786358 -228.10485905 -940.82082341 386.79304773 -143.88969281 -916.35795109 398.70195212 -296.4266566 -873.60917499 
251.90110462 -229.24537013 -945.52493027 -494.76255715 699.07224891 -516.24413106 -451.92863747 803.22457862 -400.7689895 
-497.23635813 702.56760529 -518.82536961 -581.2397066 702.71159718 -422.35271358 396.73044791 294.94802801 -869.25865683 
524.18567888 208.74367088 -831.67328557 -449.05454021 799.79257255 398.34891842 -451.2043728 803.81466183 400.40180244 
-361.90074356 806.69288916 467.19849571 -105.20710854 869.9208861 481.83930541 -105.7329139 874.27041931 484.24868078 
979.10126211 -8.9941602502e-06 -203.37334766 1002.5436874 -68.240056457 -16.566520817 977.30452504 -146.43748194 -182.91235395 
983.99676648 7.4414379263e-06 -204.39022373 -255.4345508 -798.50389677 -545.10982114 -256.61732222 -802.48922308 -547.89013203 
-396.37986738 -701.42672967 -600.7566426 -269.60816207 -692.21576699 -676.88534545 12.393749856 999.87046949 10.26835985 
12.455681431 1004.8698225 10.319684387 -155.92266397 989.71962644 78.537786509 -83.371973959 425.02461586 901.33411667 
47.854337847 448.19799416 898.25025487 -83.788835448 427.14973616 905.84078841 -6.4871249623 286.86043761 957.95041967 
210.6652044 906.8829393 -364.94315457 203.53119516 829.15450901 -520.65137355 346.97743142 834.12177022 -440.30958942 
345.25117809 829.97191232 -438.1189893 828.84882154 -342.22530258 442.59628704 832.99304733 -343.93646221 444.80927719 
749.91586278 -310.45613092 584.16024302 736.13427142 -449.00215872 516.26388205 723.7176181 676.34251239 137.08980703 
727.33623643 679.72419008 137.7752684 618.8234425 787.35776519 84.559426534 578.41217062 775.19254732 273.02174908 
-6.1538501657e-14 -7.5362929079e-30 -1005 -6.1232339957e-14 -7.4987989133e-30 1000 -174.51642004 -2.1372097521e-14 989.73179151 
-6.1538501657e-14 -7.5362929079e-30 1005 -72.851522106 136.56849107 993.00891384 -51.542586184 -141.65845247 988.57283224 
-51.800304503 -142.36674065 993.51569671 103.92918133 34.837513055 999.00454101 103.41211523 34.6641977 994.03436954 
-72.486552198 -135.89208408 -988.06833834 -173.64817915 -2.1265768677e-14 -984.80775275 -49.268771898 142.36050426 -988.58791968 
-174.51642004 -2.1372097521e-14 -989.73179151 -415.50637802 -149.46434442 -897.22620312 -343.73024529 -4.2094814466e-14 -944.39108344 
-249.24447827 -148.14772899 -957.04202648 -250.49070546 -148.88847131 -961.82723479 -500.00000098 -6.1232340077e-14 -866.02540322 
-417.58391339 -150.21165883 -901.71233375 -342.02014456 -4.1885387528e-14 -939.69262034 -246.93588605 149.92016205 -962.58589913 
-697.16061349 -150.39836522 -700.96177552 -564.70145344 -150.16974401 -811.5179089 -700.64641314 -151.15035822 -704.46658754 
-642.78761041 -7.8718778962e-14 -766.04444251 -567.52496097 -150.92059084 -815.57549862 -646.00154846 -7.9112372856e-14 -769.87466473 
-472.08291612 -297.6301763 -829.79153916 -320.81629213 -296.68498206 -905.03034652 -502.50000098 -6.1538501777e-14 -870.35553024 
-697.16061349 150.39836522 -700.96177552 -567.52496091 150.92059088 -815.57549864 -766.0444436 -9.3813387586e-14 -642.78760911 
-984.80775304 -1.2060416625e-13 -173.64817748 -959.06900583 151.45654253 -259.36953905 -944.39108402 -1.1565455182e-13 -343.73024369 
-989.73179181 -1.2120718709e-13 -174.51641837 -808.37872882 150.49618839 -569.09992802 -812.42061806 151.24866913 -571.94543397 
-870.35553109 -1.0658781153e-13 -502.49999951 -899.1801831 151.34179771 -422.60579574 -894.70664948 150.58885564 -420.50327934 
-899.31868639 300.04156396 -333.50556249 -939.69262091 -1.1507915604e-13 -342.02014297 -989.58441686 151.90591595 -87.591521367 
-697.1606145 -150.39837015 700.96177346 -564.70145448 -150.16974918 811.51790722 -642.78761041 -7.8718778962e-14 766.04444251 
-700.64641314 -151.15035822 704.46658754 -813.88239905 444.08344995 387.82770659 -899.31869047 300.04156008 333.50555497 
-894.84446447 298.5488195 331.84633008 -766.0444436 -9.3813387586e-14 642.78760911 -646.00154846 -7.9112372856e-14 769.87466473 
-727.43697491 -298.53598052 617.82822521 -612.43267478 -299.70287387 738.32879279 -731.07415508 -300.02865487 620.91737456 
-697.1606145 150.39837015 700.96177346 -700.64641299 151.15035845 704.46658764 -472.08291298 297.63017307 829.79154211 
-417.58390728 150.21166577 901.71233542 -564.70145333 150.16974412 811.51790896 -415.50637538 149.46434378 897.22620445 
-567.52496097 -150.92059084 815.57549862 -812.42061876 151.24867399 571.94543168 -567.52496097 150.92059084 815.57549862 
-812.42061806 -151.24866913 571.94543397 -870.35553109 -1.0658781153e-13 502.49999951 -808.37872884 -150.49618839 569.099928 
-72.766323127 572.2631897 822.94890724 -215.58652232 433.52808778 880.68203598 -612.43267271 299.70287684 738.32879329 
-731.07415101 300.02865677 620.91737843 -249.24468979 148.14762676 957.04198722 -250.49091069 148.88836506 961.82719779 
-320.81627948 296.68498233 905.03035092 -564.70144766 150.16975175 -811.51791149 -866.02540407 -1.0605752391e-13 -499.99999951 
-899.1801831 -151.34179771 -422.60579574 -700.64641314 151.15035822 -704.46658754 -769.87466582 -9.4282454524e-14 -646.00154716 
-808.37872448 -150.49619664 -569.09993201 -812.42061806 -151.24866913 -571.94543397 -827.76233923 -300.32254978 -484.39743584 
-959.06900583 -151.45654253 -259.36953905 -894.70664948 -150.58885564 420.50327934 -899.18018345 -151.34180247 422.60579328 
-894.70664948 150.58885564 420.50327934 -899.18018345 151.34180247 422.60579328 -769.87466582 -9.4282454524e-14 646.00154716 
-984.80775304 -1.2060416625e-13 173.64817748 -959.06900583 -151.45654253 259.36953905 -989.73179181 -1.2120718709e-13 174.51641837 
-989.58441686 -151.90591595 87.591521367 -827.76233709 -300.32255416 484.39743678 -502.50000098 -6.1538501777e-14 870.35553024 
-500.00000098 -6.1232340077e-14 866.02540322 -246.10553638 -148.95912794 957.72816768 -247.33606588 -149.70392454 962.5168079 
-472.08291234 -297.63016763 829.79154442 -609.38574178 -298.21182864 734.65551313 -343.73024529 -4.2094814466e-14 944.39108344 
-415.50637499 -149.46434428 897.22620455 -417.58391339 -150.21165883 901.71233375 -155.0321943 279.20950897 947.63234898 
-72.489079371 135.88904768 988.06857054 -155.80735217 280.60555483 952.37051173 -954.29751722 -150.70303382 -258.07914334 
100.91914247 -155.08046937 982.73362347 -944.39108402 -1.1565455182e-13 343.73024369 -823.6441168 -298.82841724 481.98749559 
[...]
CELL_DATA 6168
FIELD FieldData 1
mean 1 6168 double
8.3831748371e-13 2.2227238583e-12 8.8597563007e-12 1.1560338673e-12 8.8632888193e-12 5.5718659584e-12 2.7271794011e-12 6.1514107433e-12 2.8899557083e-12 
4.4079314138e-12 4.836205013e-12 4.8300589091e-12 5.5622736094e-12 2.9620417268e-12 4.3797516475e-12 7.2165574639e-12 4.3134657448e-12 1.9709880982e-12 
4.793949679e-13 2.6601581516e-12 4.3963559585e-12 1.0879063049e-11 1.9781784686e-11 7.4585376872e-12 4.9952917815e-12 1.1183876352e-11 1.0987877525e-11 
6.184456344e-12 1.118758167e-11 1.1126879782e-12 8.0667515765e-12 5.4128172309e-12 6.8660057732e-12 2.8833995215e-12 6.9895069997e-12 6.0411621961e-12 
2.2088828171e-12 2.9840339947e-12 3.3348493721e-12 9.6299436003e-12 9.3829487713e-12 4.1131992232e-12 1.0131831167e-11 1.3839110146e-12 1.160542036e-12 
8.6770523049e-12 1.5949097666e-12 1.8082508147e-12 6.1739064507e-13 3.5431151972e-12 5.1254592892e-12 1.0474014014e-13 7.0193396599e-12 1.4689713116e-12 
1.5323662003e-12 4.4966585366e-12 2.8360866555e-12 2.1652294525e-12 5.5077449736e-12 6.1233630577e-12 5.3268075741e-12 5.2638690285e-12 4.4675852946e-12 
1.5413477182e-12 2.3969658251e-12 3.7300870154e-12 6.6275990766e-12 1.2599468396e-12 2.5459121465e-13 5.9377735909e-13 5.3711378193e-12 3.0108775627e-12 
8.3283149627e-13 3.1009510326e-12 6.7983954689e-12 2.2132677858e-12 8.0623949712e-12 4.7723768891e-12 8.1395613231e-12 5.7421919621e-12 2.3424061666e-12 
4.9811226935e-12 3.6640372022e-13 3.0536438813e-12 1.4725374907e-12 5.1813518509e-12 1.2284503891e-12 1.0975453207e-12 2.1829529247e-12 4.1587429602e-12 
7.2410725975e-13 6.6122343336e-12 6.0149926744e-12 3.9375329514e-12 2.7879312889e-12 9.5736333939e-13 6.2177806911e-12 5.8422405462e-12 6.3118777416e-12 
3.0577165845e-12 5.9439789825e-12 5.7876786374e-12 7.0964943048e-12 5.0756329647e-12 1.3161969215e-12 2.3494535542e-12 3.4998526204e-12 9.3084799411e-13 
5.4861278516e-12 4.525536528e-12 4.4793648434e-13 3.5598800709e-12 4.9904154516e-12 5.9357560715e-12 2.9862173901e-12 7.8502439334e-13 1.3379079952e-11 
8.5598170697e-14 3.9851074986e-12 3.3459434052e-12 5.1382709533e-13 2.5136743828e-12 5.9720877409e-12 3.6725819308e-12 8.9734382314e-12 5.4555808812e-12 
5.5732997333e-12 7.0896921993e-13 8.3705518188e-12 6.3393770758e-12 1.4767541188e-12 4.5903540797e-12 9.3831937693e-12 5.9002039264e-13 5.7972230215e-12 
1.6991848226e-12 4.5556763631e-12 2.8885914411e-12 7.6930613517e-12 4.0453910696e-12 5.0575091244e-12 6.4718546762e-12 5.7343636809e-12 4.4083918794e-12 
1.0737601418e-11 9.5784592856e-13 8.0063809109e-13 2.5137029126e-12 5.7226327147e-12 5.7266996522e-12 5.0097697091e-12 1.7437765291e-12 1.3029302778e-12 
2.5466260946e-13 5.1470605367e-12 1.5837054781e-12 4.3588453249e-13 2.2062216278e-12 9.2452831129e-12 3.0657309793e-12 6.0789386019e-12 2.6157022044e-12 
1.5349413796e-11 6.3208330748e-12 1.1883687151e-12 2.5071306343e-12 8.3822858186e-12 4.9877140904e-12 3.8118918472e-12 5.6370208161e-12 3.3198981468e-12 
8.0875589412e-12 2.6362485012e-12 5.5549379687e-12 9.0718385917e-13 9.1298688827e-13 1.1373119305e-12 6.7382611485e-12 7.9111228957e-12 1.0329822116e-11 
1.1253198463e-12 6.919357816e-12 3.6355421638e-12 8.2564637416e-12 8.2144013241e-12 2.8816789303e-12 7.1429023854e-12 7.7844271044e-12 6.4801818569e-12 
7.6837236505e-12 5.4680399795e-12 7.812882329e-12 4.8084145827e-12 1.1546980717e-11 3.6965210814e-13 1.3878777785e-12 7.0590913505e-12 2.9522664401e-12 
3.8934822286e-12 6.7902408917e-12 6.9253147877e-12 6.2719384262e-12 1.0001562164e-11 8.5330513963e-12 1.1619061342e-11 4.036005731e-13 1.8827382311e-12 
4.6696500053e-12 3.2904315724e-12 5.4277935595e-12 5.9745613678e-12 4.6890327308e-12 5.1350657879e-13 9.1641825339e-13 8.6168169681e-12 2.1325978637e-12 
3.2745953104e-12 1.0594718612e-11 6.6288497986e-12 1.1215153193e-12 7.0122557836e-13 6.6216044226e-12 6.6208616376e-12 2.7418693639e-12 4.5582020169e-12 
3.9254295965e-12 8.4466355132e-12 9.871801853e-12 5.1537368815e-12 6.9476978465e-12 2.5926605733e-12 8.8919871642e-12 5.8918740988e-12 6.1206333568e-12 
1.0891377379e-11 6.68182747e-12 8.6527500365e-13 7.2977126766e-12 1.9025880912e-12 7.3631023351e-12 5.9165134865e-12 2.1739415371e-12 1.6292942027e-12 
1.5901117134e-12 2.0039836716e-12 6.8145736811e-13 6.1659049303e-12 6.0943691678e-12 7.3817360495e-12 2.0542832899e-12 7.7876108531e-12 3.9035537676e-12 
6.5915854362e-12 3.0357566686e-12 1.4024750083e-13 1.4230192256e-12 3.3702816941e-12 9.3608700995e-12 1.1261625562e-11 1.1263186841e-11 2.4470807527e-12 
6.4486131555e-12 9.0744537752e-12 6.1481872033e-13 1.0247369799e-11 1.8849503064e-12 1.2193309036e-11 7.606242858e-12 2.6164277686e-12 7.4407339405e-12 
5.6104553204e-12 6.8498935276e-12 4.710813026e-12 6.1230964339e-12 3.5687421244e-12 9.6318494181e-12 2.6855506432e-12 9.6222881853e-13 7.1537946374e-12 
2.8754382876e-12 3.4403837548e-12 1.0309583123e-11 8.2946943497e-12 3.7110766853e-13 2.0371177743e-12 1.1397061252e-12 4.1922875351e-11 4.0954335485e-12 
7.2234061378e-12 5.5233593413e-12 7.6793583142e-12 7.4987927179e-12 7.159040957e-13 9.8608368591e-12 1.0583280196e-11 2.4665840745e-12 2.2783250099e-12 
1.2565922118e-12 1.0193733015e-11 8.7122137012e-13 2.2648100576e-12 7.4923136693e-12 8.5666346813e-12 6.1133490082e-13 6.8498036273e-12 1.2437617673e-11 
1.7001349611e-11 4.136808994e-12 7.4786593912e-12 1.2507334006e-12 1.4705337648e-12 9.4751861494e-13 1.3857612971e-12 8.8383510286e-13 6.0046201366e-12 
2.6881047276e-12 3.4958407036e-12 8.7422103228e-12 3.6282967129e-13 4.1399642729e-12 1.5873935489e-11 7.8457865405e-12 4.6386570056e-12 1.596066466e-12 
1.6348999154e-12 4.0208511647e-12 8.7490758629e-12 6.6397155877e-12 2.1185685426e-12 1.1444256598e-11 1.9828999688e-12 6.0010031568e-12 6.4074512175e-13 
4.9923342084e-12 8.5994262795e-12 8.782326731e-12 9.5166510077e-12 5.571831964e-12 7.7459507427e-12 9.5793441659e-12 6.0114888627e-12 2.6796325164e-12 
1.5028030332e-12 5.1340124599e-12 7.5723742273e-12 1.5473941293e-12 1.0819606836e-11 1.383440523e-11 4.9702396685e-13 3.1093555441e-13 2.2583436959e-12 
6.7445596939e-12 2.0762901657e-12 8.8680359645e-12 3.2979544574e-12 5.693306365e-12 1.1791143682e-11 1.0016735385e-12 3.1707795815e-12 6.168247561e-12 
5.3639552208e-12 8.3923390295e-12 3.3724927659e-12 1.0000425266e-11 8.1436420709e-12 8.5117945748e-12 1.6806426364e-12 7.3208274201e-12 1.1921698518e-11 
7.011414717e-12 1.0084247243e-11 3.0015525449e-12 2.3663163629e-12 2.8049081883e-13 1.0353005945e-11 2.9361452613e-12 9.9534093122e-12 7.4665110869e-12 
8.0079448447e-12 1.8308693018e-11 1.6920056042e-12 6.5144332464e-13 4.0407773026e-12 9.1696582859e-12 7.5933520442e-12 1.145445099e-12 2.8886787599e-12 
2.8474326392e-12 3.8078256017e-12 2.2174601253e-12 8.020699341e-12 5.6145530125e-12 5.5036948905e-12 8.902241325e-12 2.4253672846e-11 1.1811234472e-11 
3.5928162859e-11 9.591948464e-12 3.0100209577e-12 9.3750018187e-12 1.1863555556e-11 3.107248208e-12 1.8921014244e-12 6.0181656484e-12 1.9043919385e-12 
8.4934407271e-12 6.7046842408e-12 1.0905522113e-11 2.7622874164e-12 1.6000468657e-11 9.2563468367e-12 2.3126058671e-11 1.2143387829e-11 2.073031287e-11 
3.7923971352e-12 1.9628743358e-12 7.5416006537e-12 7.2426528718e-12 1.0657772577e-12 3.012539737e-12 1.2597534294e-11 3.280878496e-12 5.3580685986e-12 
3.7460134972e-12 1.1156358956e-12 6.2444196188e-12 1.2613486485e-11 4.9872008806e-12 5.5217605072e-12 3.4354108799e-13 3.7392849536e-12 1.5366030687e-12 
4.7370813704e-12 2.3916142443e-12 2.2775198139e-12 1.4292730824e-11 8.509598174e-12 5.6214540771e-13 3.806448167e-12 1.4758745687e-12 1.7091811369e-11 
5.7209040657e-13 9.7159618285e-12 6.6226675671e-12 3.7185520791e-12 2.6491979563e-12 6.8849926956e-13 1.917733646e-12 4.0793224169e-12 1.6180229413e-12 
8.9354802712e-12 1.2057215624e-12 6.1557389247e-12 6.7004743036e-12 4.6977200748e-12 1.5526240613e-12 7.4086215085e-13 5.9401499665e-12 3.0250913295e-12 
3.0749404595e-12 6.9422139285e-13 4.8057720144e-12 8.407411031e-12 1.0147112145e-11 1.8353296297e-11 1.5645931524e-12 7.0736196629e-12 6.3344913707e-12 
1.3986577218e-12 1.6707887842e-12 9.7386970911e-12 4.1200628149e-12 8.3099868344e-12 1.7360478765e-11 4.0725581274e-12 1.639655327e-11 9.7161446505e-12 
1.7453403247e-12 9.1002900398e-12 6.5615615463e-13 4.9913662029e-12 6.8154755594e-12 3.8246701668e-12 1.788058422e-11 3.2342137341e-12 7.0036930746e-12 
2.0156427893e-12 2.2419010863e-12 5.3769708498e-12 2.8468019997e-12 4.1038577655e-12 7.2148973893e-13 7.7999393047e-12 2.9521928204e-12 2.4565201757e-12 
8.6172453968e-12 1.1380330475e-11 6.3688653993e-12 2.2456781525e-12 4.8075049492e-12 1.9622126428e-12 3.3054544698e-12 1.9946005345e-12 2.1501312352e-12 
3.7117793882e-12 4.885919387e-12 4.5841946309e-12 2.6910115459e-12 1.6209668388e-12 1.2854574592e-11 3.6113471157e-12 1.6717082941e-12 1.7235209517e-12 
6.3129868065e-13 2.1955012974e-12 5.8379876856e-12 3.2211533235e-12 6.8507681857e-12 5.6525241555e-13 9.8506233717e-12 3.03707194e-12 1.2711965017e-12 
1.0454223427e-12 5.7613285873e-12 3.555786911e-12 2.356486304e-13 4.872157919e-12 6.7614433188e-12 1.8866715583e-12 9.5118550746e-13 1.1128420441e-12 
3.7404979511e-12 5.8971497073e-12 4.2544036367e-12 6.9173725432e-12 1.2350246782e-12 2.7684433165e-12 2.7978745145e-12 4.0069759553e-12 1.4882162349e-12 
3.6490261469e-12 4.1502104716e-12 5.3042144956e-12 6.3974635257e-12 3.3120636292e-12 8.5950632831e-12 7.1085146353e-12 1.1425248955e-11 4.6465152838e-12 
4.5798605946e-12 1.0909789305e-12 7.2207202864e-12 1.9118414005e-12 3.0092805944e-12 7.5192775843e-12 6.8627997114e-12 6.1028295751e-12 7.0517838141e-12 
4.7009019633e-12 8.4049172359e-14 2.3911504713e-12 5.0233912695e-12 8.911784004e-12 6.7529937873e-12 6.3206350854e-12 4.4436805311e-13 6.4501379096e-12 
3.619899318e-12 8.0981199222e-13 1.069003079e-12 5.9947841249e-13 1.8691373183e-12 2.0025167244e-12 6.1106980146e-13 7.5526827538e-12 8.6461614855e-12 
4.8401097348e-12 7.2769367529e-12 2.094153335e-12 7.3716231464e-12 2.8980032253e-13 4.0897310142e-12 6.6167078322e-13 5.1046615856e-12 8.281688429e-12 
1.3742463121e-11 4.424538751e-12 2.7048200516e-12 1.0403766535e-11 1.2219760248e-11 1.1729004902e-11 1.297386273e-12 3.3258818312e-12 4.763022441e-12 
3.7028331934e-12 6.5760238211e-12 3.1524379209e-12 8.2240272548e-12 7.2287108077e-13 3.4188468386e-12 2.5858441985e-12 4.8178012721e-12 6.4255230789e-12 
1.9295164513e-12 6.6657689746e-12 3.3411149755e-12 1.2830961241e-12 5.3978206513e-12 2.7986287703e-12 3.4180095388e-12 1.2042428412e-12 1.7963565044e-12 
3.817699063e-12 2.600640212e-12 2.9376491676e-12 8.2063130025e-12 6.8190984962e-13 8.9127242897e-12 5.7784505335e-12 9.9995565256e-13 5.5743275246e-12 
2.5252210925e-12 2.9051709666e-12 2.6616399214e-12 1.539586095e-12 6.0955493775e-13 1.3537613129e-12 4.9875057638e-12 5.230087354e-12 1.6254643857e-11 
1.1643968735e-12 5.0885990959e-13 4.4476111558e-12 6.0763930786e-12 5.502714997e-12 4.0808609762e-12 3.1331866908e-12 4.3087746212e-12 5.0553483311e-12 
8.9976759591e-12 3.3686587203e-12 3.2876117836e-12 2.5275793541e-12 3.1724051246e-12 5.8613253065e-12 2.741298398e-12 1.7474784351e-12 5.9855137779e-12 
1.8589634501e-12 5.6695141322e-12 1.3834545312e-12 3.9288257504e-13 4.1152896743e-13 5.0291097071e-12 7.180278371e-13 1.9899523972e-12 2.6023204123e-13 
2.3952392597e-12 3.0767034443e-12 1.8504791945e-12 1.4535640554e-11 5.1711892811e-13 8.2251611351e-13 2.2230408666e-12 4.3735786327e-12 5.7731373135e-12 
3.0966482865e-12 1.4000531277e-12 8.5863830289e-12 3.3367634686e-12 4.7416343823e-12 7.0666857793e-13 4.4672412923e-12 1.7791066895e-12 4.9328877871e-12 
1.393432109e-12 1.3207859533e-12 2.3005713193e-12 2.6416061028e-12 2.7713598382e-12 4.1225057444e-12 1.6313351074e-12 4.3114765067e-12 3.0851089741e-12 
1.1523691924e-12 4.7666536997e-12 4.3459728576e-12 1.2254480091e-12 1.7861625278e-12 7.2200265967e-12 3.8806557995e-12 3.1244553217e-13 7.3423066242e-12 
3.0947548983e-12 1.605598832e-12 5.5145043513e-12 2.0245967718e-12 2.5673139921e-12 2.3053612547e-12 2.2135433808e-12 3.3555245675e-12 3.4848246375e-12 
2.8386121541e-12 4.9366650092e-13 3.2827231838e-12 2.0485809535e-14 4.4705163216e-12 8.1475413497e-12 4.8979346949e-12 1.0132863309e-11 8.4441534152e-13 
4.8141160465e-12 7.841042456e-13 6.8182792016e-13 1.9360540293e-12 4.7258372833e-12 4.9777433395e-12 6.7408481036e-12 8.0120660366e-12 1.4387880449e-12 
2.6841145203e-12 1.6297088354e-12 7.7223054144e-12 1.4808892938e-12 5.6621252114e-12 6.0306728052e-13 5.2633662034e-13 4.1557156935e-12 3.0842984179e-12 
5.8524419431e-13 1.3654735885e-12 3.750244931e-12 2.392504893e-12 1.5120287319e-11 3.7067298151e-12 3.9808239465e-12 6.030909047e-12 1.36191426e-12 
5.6185266626e-12 4.324685377e-12 8.3704376308e-12 1.4043830285e-11 8.0437237512e-13 2.9148821443e-12 3.1418417177e-12 5.3718939495e-12 8.8078766749e-13 
4.4096356354e-12 6.0556119664e-12 6.1085164454e-12 7.8651395937e-13 2.3465070716e-12 3.6608594342e-12 8.6230950275e-12 2.0560828572e-12 5.8321111566e-12 
6.267191739e-12 8.2128263545e-12 1.233562021e-12 4.7496459826e-12 9.3283367214e-12 9.2524497314e-12 3.8789405502e-13 5.0854837587e-12 6.3505460928e-12 
1.4857211518e-13 8.8671466726e-12 6.8709710628e-12 5.2589002416e-12 5.5842758802e-12 1.6714219469e-12 5.0582913454e-12 5.4876315657e-12 6.9159699029e-12 
7.2307549462e-12 4.373556129e-12 3.0263762295e-12 6.0973626602e-12 6.874579433e-12 1.7587919942e-12 4.4299512162e-12 4.2915069286e-12 8.8069462845e-12 
5.8550432953e-12 1.1036971222e-11 1.2265723925e-11 2.1790335412e-12 6.5375507316e-12 4.7658645721e-12 2.1219661763e-12 1.9878364726e-13 1.2269529506e-12 
1.4124020124e-11 8.7245905969e-12 1.0271750187e-11 4.6090019031e-12 5.0490784683e-12 6.2110183189e-12 5.5300352107e-13 2.1984367551e-12 1.885290658e-12 
5.8211474512e-12 1.0986081214e-12 2.7388068336e-12 1.852304108e-12 6.5714145623e-12 7.4126106249e-12 5.4833831931e-12 8.2819157716e-12 6.6640671991e-12 
6.1480050201e-12 5.8471648553e-12 8.4174856066e-12 4.3533311126e-12 6.698216832e-12 3.4510440354e-12 8.6325322041e-12 3.9993305458e-12 4.409845915e-12 
4.9173869361e-12 5.7659686188e-12 5.0826581043e-12 4.7163952607e-12 2.3444659461e-12 2.5816460465e-12 4.3897318507e-12 1.4259374989e-12 1.9002881781e-12 
4.2326127542e-12 3.1856439585e-12 1.8369413672e-12 9.1190100385e-13 7.6478403621e-12 1.3065241022e-13 4.997040305e-12 5.5497188394e-12 4.5289473861e-13 
5.4571310711e-12 3.3820008104e-12 5.9164607766e-12 2.5907192294e-13 2.0087753424e-12 2.9338151721e-12 2.4884131596e-12 4.2442298547e-12 1.206618639e-12 
5.2464025547e-13 1.0434589038e-11 2.8335141789e-12 8.0810207462e-12 1.0876766131e-12 9.6896260324e-12 2.0283840398e-12 7.2621235172e-12 6.7752385244e-13 
4.8383520347e-12 3.8492631705e-12 5.0185983003e-12 2.1521379996e-12 4.6297256857e-12 2.1529131997e-12 1.5684752843e-12 7.9808123197e-12 5.8665264404e-12 
5.8048506908e-12 6.0633785487e-12 6.806992307e-12 6.3368844462e-13 6.5203512909e-12 1.5149087614e-12 2.99819561e-12 8.7179468549e-12 7.3120139066e-12 
5.4285187653e-12 1.6575630579e-12 1.543167106e-12 1.7789582607e-12 8.6008900781e-13 5.3868171953e-12 1.7961140337e-12 2.2925713088e-12 2.468871299e-12 
1.0114101003e-12 5.9216943943e-12 1.9197545143e-12 1.2464450138e-12 1.717801614e-12 2.0441395502e-12 5.1757281039e-12 4.9951407612e-12 4.5795266086e-12 
1.8089571674e-12 5.9968776852e-13 5.7550194682e-12 9.935227585e-13 3.8987626029e-12 4.5412653249e-12 2.7060912626e-12 1.4941666552e-12 1.9806130753e-12 
6.5047554967e-12 1.5808846134e-12 5.5072272835e-12 3.6808162509e-12 3.4920084904e-12 7.698399739e-13 2.0818562437e-12 9.4591839257e-13 6.6991034591e-12 
4.106268954e-12 6.4122235207e-13 9.6999437495e-13 7.2925090207e-12 4.5163693705e-12 6.8618334562e-12 8.7674629379e-13 2.1782308289e-12 3.0712206624e-12 
5.6855862511e-13 1.2703157142e-12 1.538485337e-12 2.4168385661e-12 4.0239052234e-12 4.2521222372e-12 6.5810233544e-12 7.9172338449e-12 3.2257844912e-12 
5.3358346602e-13 5.6755614854e-12 2.2675658617e-12 5.0346069411e-12 2.3143483985e-12 1.4171798302e-12 1.6558156807e-12 1.8509014283e-12 3.1761508418e-12 
5.1874680714e-13 7.393157119e-12 1.9603275946e-12 2.7501363328e-12 1.3062077726e-12 2.9462120112e-12 1.07357667e-11 3.4994451036e-12 3.6737480875e-12 
4.2333498135e-12 1.0106203496e-11 1.2996206797e-11 7.7860506506e-12 8.1090109292e-12 5.7477040169e-12 5.5628011233e-12 6.5388421635e-12 2.3694746427e-13 
8.0112810579e-12 7.390765825e-13 3.1174934592e-12 1.8590591274e-12 7.7819673151e-13 3.3920787913e-12 3.2821297061e-12 6.6121460214e-12 6.7887520533e-12 
1.643731971e-12 4.0531493098e-13 6.5063380483e-12 1.8875087341e-12 1.0328488582e-12 2.5131053854e-12 4.7141807549e-13 1.809182444e-12 3.065931153e-12 
6.0754866717e-12 7.4170284851e-13 4.0679392547e-13 6.909965865e-12 4.0788338375e-12 7.2439236485e-12 2.0880978407e-12 6.7916884711e-12 1.7471813407e-12 
1.7529508285e-12 2.5965537212e-12 2.2920908967e-12 1.0243204693e-11 7.8753826912e-12 1.0753461174e-11 1.224174663e-12 6.0792384914e-12 3.5593448389e-12 
3.0588195309e-12 8.7160738723e-12 2.9398350152e-12 2.5995266353e-12 5.2171168593e-12 3.2755016943e-12 3.0647036172e-12 2.9700515132e-12 3.0458607974e-12 
6.5760153384e-12 1.7807774747e-12 3.6826619609e-12 1.3641967353e-12 5.1436280922e-12 4.3307638199e-12 6.8880588043e-12 7.0856727313e-12 3.9005608094e-12 
4.9886994975e-12 2.6348175014e-12 4.9355259521e-12 8.3961446575e-13 6.0830250326e-12 5.5962482931e-13 7.0657234592e-12 6.7753620757e-12 1.3158005945e-12 
1.0950058012e-11 2.4416280038e-12 7.950073338e-12 2.5997087411e-12 7.8910156198e-12 7.7027850071e-13 1.2556685881e-12 8.26928836e-12 1.7111474442e-12 
6.9234352841e-12 5.422597367e-12 8.347473983e-12 6.7888097483e-12 1.0799246835e-11 1.0542739966e-12 7.336455264e-12 1.8010965011e-12 8.0185017158e-12 
7.8702122066e-12 4.455034245e-13 1.279798289e-11 1.9474013656e-12 6.0371581511e-12 4.136679028e-12 9.3005667978e-13 4.8463300167e-12 7.9925879e-12 
6.1190037405e-13 3.3273475107e-12 4.2250263125e-12 5.8034559712e-13 7.6209167808e-12 3.6518158572e-13 1.6782668991e-12 5.459898534e-12 2.0965572998e-12 
4.5927549379e-13 6.7683061118e-12 1.8532258252e-12 9.0946853324e-13 5.6619414647e-12 5.7180665648e-12 1.7267513069e-12 6.8930675968e-12 8.4663360084e-12 
1.2537392579e-11 4.068066227e-12 1.3689077559e-12 1.7219355236e-12 1.3565130358e-11 5.491186e-12 7.429785315e-12 1.1968728109e-11 3.58968962e-12 
2.9026919978e-12 5.8367411502e-12 2.2154590172e-12 5.1502423599e-12 2.3791659692e-12 6.2408614386e-12 2.151887921e-12 2.3972442612e-12 4.8233096362e-13 
6.2994425437e-12 1.0609392644e-12 1.9265560834e-12 4.0611114001e-13 5.4220086851e-13 4.9539089024e-12 7.4525358885e-12 9.8710259106e-12 6.9876091687e-12 
6.5429251852e-12 8.6444601648e-12 5.3082644922e-13 1.2901636948e-11 3.9663922641e-12 3.6791611703e-12 1.0525087246e-11 6.8678024739e-12 1.0011601143e-12 
9.42354932e-12 5.6871402514e-12 2.476053287e-12 1.1749369331e-12 3.3973840536e-12 1.07521876e-12 9.5086624657e-13 2.5452861034e-12 4.334625803e-12 
1.9806953272e-12 9.5089961896e-13 9.8963086226e-13 2.8571636307e-12 3.2177107438e-12 3.8346668222e-13 5.0511279604e-12 8.4382473328e-12 1.492853935e-12 
3.3343888613e-12 3.1328836176e-12 3.7150612861e-13 8.5097856842e-12 2.4272792179e-12 4.5120215011e-12 1.2411074163e-11 8.0050381033e-12 8.198007704e-12 
2.7727013998e-12 1.1361665348e-12 7.8578297522e-13 5.1777863787e-12 1.2300047358e-12 1.0418319548e-12 2.1780711048e-12 5.4311496033e-13 2.6400164728e-12 
5.2033723047e-13 2.1815951297e-12 7.4935409114e-12 8.5739897963e-12 8.0648044209e-12 5.9891243637e-12 3.5991164861e-12 6.9435180355e-13 2.6707589901e-12 
2.9524678545e-12 1.5411912752e-12 7.2102827528e-13 6.290629301e-12 6.6319014217e-12 5.8777267262e-12 5.0267585738e-12 9.170077048e-12 1.3595490302e-12 
5.81737197e-12 4.3576066407e-12 9.7950750822e-12 5.3747111638e-12 2.4890394004e-12 4.2785015629e-12 5.0730152032e-12 9.0527686652e-12 1.0456846675e-11 
1.3122204295e-11 9.6417128879e-13 7.491131823e-12 2.1459623695e-12 4.8670147812e-12 5.0556898568e-12 8.6765060175e-12 2.0748537749e-12 7.2967565698e-12 